Title: 
Date: Sat Mar 12 14:21:06  2011
Plotname: Transient Analysis
Flags: real
No. Variables: 3
No. Points: 408     
Variables:
	0	time	time
	1	v(1)	voltage
	2	i(v.x1.v)	current
Values:
0		0.000000000000000e+00
	0.000000000000000e+00
	0.000000000000000e+00
1		1.000000000000000e-04
	9.999597710677327e-01
	-9.999597710677328e-04
2		2.000000000000000e-04
	9.999195421354654e-01
	-9.999195421354654e-04
3		4.000000000000000e-04
	9.998390842709307e-01
	-9.998390842709307e-04
4		8.000000000000000e-04
	9.996781685418615e-01
	-9.996781685418616e-04
5		1.600000000000000e-03
	9.993563370837230e-01
	-9.993563370837230e-04
6		3.200000000000000e-03
	9.987126741674460e-01
	-9.987126741674460e-04
7		6.400000000000000e-03
	9.974253483348920e-01
	-9.974253483348921e-04
8		1.280000000000000e-02
	9.948506966697841e-01
	-9.948506966697842e-04
9		2.280000000000000e-02
	9.889191821511070e-01
	-9.889191821511069e-04
10		3.280000000000000e-02
	9.769165582669435e-01
	-9.769165582669435e-04
11		4.280000000000000e-02
	9.633701111656150e-01
	-9.633701111656150e-04
12		5.280000000000001e-02
	9.435848393760391e-01
	-9.435848393760391e-04
13		6.280000000000001e-02
	9.226245876371331e-01
	-9.226245876371331e-04
14		7.280000000000000e-02
	8.953815415578549e-01
	-8.953815415578549e-04
15		8.280000000000000e-02
	8.673201334180268e-01
	-8.673201334180268e-04
16		9.279999999999999e-02
	8.330666431139059e-01
	-8.330666431139059e-04
17		1.028000000000000e-01
	7.983236309600202e-01
	-7.983236309600202e-04
18		1.128000000000000e-01
	7.576221377921096e-01
	-7.576221377921096e-04
19		1.228000000000000e-01
	7.167177658690237e-01
	-7.167177658690238e-04
20		1.328000000000000e-01
	6.702365872312164e-01
	-6.702365872312164e-04
21		1.428000000000000e-01
	6.237554085934092e-01
	-6.237554085934091e-04
22		1.528000000000000e-01
	5.722864296729107e-01
	-5.722864296729106e-04
23		1.628000000000000e-01
	5.207887852336182e-01
	-5.207887852336181e-04
24		1.728000000000000e-01
	4.653143383020044e-01
	-4.653143383020044e-04
25		1.828000000000000e-01
	4.096458179612871e-01
	-4.096458179612871e-04
26		1.928000000000000e-01
	3.510049688198610e-01
	-3.510049688198610e-04
27		2.028000000000000e-01
	2.920796481383870e-01
	-2.920796481383870e-04
28		2.128000000000000e-01
	2.311584767791588e-01
	-2.311584767791588e-04
29		2.228000000000001e-01
	1.699439078952205e-01
	-1.699439078952205e-04
30		2.328000000000001e-01
	1.076622201622283e-01
	-1.076622201622283e-04
31		2.428000000000001e-01
	4.516354460831620e-02
	-4.516354460831620e-05
32		2.528000000000001e-01
	-1.753890889421886e-02
	1.753890889421886e-05
33		2.628000000000001e-01
	-8.029546460006634e-02
	8.029546460006635e-05
34		2.728000000000001e-01
	-1.424730577436067e-01
	1.424730577436067e-04
35		2.828000000000001e-01
	-2.044570326882036e-01
	2.044570326882036e-04
36		2.928000000000001e-01
	-2.651724125817185e-01
	2.651724125817186e-04
37		3.028000000000001e-01
	-3.253660316075221e-01
	3.253660316075221e-04
38		3.128000000000001e-01
	-3.837041371795365e-01
	3.837041371795365e-04
39		3.228000000000001e-01
	-4.411190227321976e-01
	4.411190227321976e-04
40		3.328000000000002e-01
	-4.962007654684011e-01
	4.962007654684011e-04
41		3.428000000000002e-01
	-5.498941667108966e-01
	5.498941667108966e-04
42		3.528000000000002e-01
	-6.008895710179454e-01
	6.008895710179453e-04
43		3.628000000000002e-01
	-6.499798437843862e-01
	6.499798437843862e-04
44		3.728000000000002e-01
	-6.961204524576763e-01
	6.961204524576763e-04
45		3.828000000000002e-01
	-7.398015358312515e-01
	7.398015358312515e-04
46		3.928000000000002e-01
	-7.803918969890807e-01
	7.803918969890807e-04
47		4.028000000000002e-01
	-8.179465487859141e-01
	8.179465487859141e-04
48		4.128000000000002e-01
	-8.523746142484643e-01
	8.523746142484643e-04
49		4.228000000000002e-01
	-8.831861881238265e-01
	8.831861881238265e-04
50		4.328000000000002e-01
	-9.109324692540565e-01
	9.109324692540564e-04
51		4.428000000000002e-01
	-9.344950400166653e-01
	9.344950400166653e-04
52		4.528000000000003e-01
	-9.551403853589251e-01
	9.551403853589252e-04
53		4.628000000000003e-01
	-9.710670562493640e-01
	9.710670562493639e-04
54		4.728000000000003e-01
	-9.842989356099788e-01
	9.842989356099788e-04
55		4.828000000000003e-01
	-9.923281911320093e-01
	9.923281911320093e-04
56		4.928000000000003e-01
	-9.979453927499999e-01
	9.979453927499999e-04
57		5.028000000000002e-01
	-9.979453927499999e-01
	9.979453927499999e-04
58		5.128000000000003e-01
	-9.958610635617022e-01
	9.958610635617024e-04
59		5.228000000000003e-01
	-9.878318080396717e-01
	9.878318080396718e-04
60		5.328000000000003e-01
	-9.780747914411562e-01
	9.780747914411561e-04
61		5.428000000000003e-01
	-9.621481205507173e-01
	9.621481205507173e-04
62		5.528000000000003e-01
	-9.448625711522119e-01
	9.448625711522120e-04
63		5.628000000000003e-01
	-9.213000003896030e-01
	9.213000003896031e-04
64		5.728000000000003e-01
	-8.967432806289840e-01
	8.967432806289840e-04
65		5.828000000000003e-01
	-8.659317067536220e-01
	8.659317067536220e-04
66		5.928000000000003e-01
	-8.344705955765188e-01
	8.344705955765188e-04
67		6.028000000000003e-01
	-7.969159437796853e-01
	7.969159437796853e-04
68		6.128000000000003e-01
	-7.590212125156219e-01
	7.590212125156220e-04
69		6.228000000000004e-01
	-7.153401291420468e-01
	7.153401291420468e-04
70		6.328000000000004e-01
	-6.715795638016175e-01
	6.715795638016175e-04
71		6.428000000000004e-01
	-6.224892910351764e-01
	6.224892910351764e-04
72		6.528000000000004e-01
	-5.733990182687352e-01
	5.733990182687352e-04
73		6.628000000000004e-01
	-5.198258620150960e-01
	5.198258620150959e-04
74		6.728000000000004e-01
	-4.661324607726006e-01
	4.661324607726006e-04
75		6.828000000000004e-01
	-4.089666868227040e-01
	4.089666868227040e-04
76		6.928000000000004e-01
	-3.515518012700426e-01
	3.515518012700426e-04
77		7.028000000000004e-01
	-2.916576049530683e-01
	2.916576049530683e-04
78		7.128000000000004e-01
	-2.314639859272649e-01
	2.314639859272649e-04
79		7.228000000000004e-01
	-1.697460067192257e-01
	1.697460067192257e-04
80		7.328000000000005e-01
	-1.077620317746291e-01
	1.077620317746291e-04
81		7.428000000000005e-01
	-4.515179340478827e-02
	4.515179340478827e-05
82		7.528000000000005e-01
	1.760476230105930e-02
	-1.760476230105930e-05
83		7.628000000000005e-01
	8.016280291851047e-02
	-8.016280291851047e-05
84		7.728000000000005e-01
	1.426614784724225e-01
	-1.426614784724225e-04
85		7.828000000000005e-01
	2.042240664702294e-01
	-2.042240664702294e-04
86		7.928000000000005e-01
	2.654386353541678e-01
	-2.654386353541678e-04
87		8.028000000000005e-01
	3.250778277200159e-01
	-3.250778277200159e-04
88		8.128000000000005e-01
	3.840031484014897e-01
	-3.840031484014897e-04
89		8.228000000000005e-01
	4.408201893520917e-01
	-4.408201893520917e-04
90		8.328000000000005e-01
	4.964887096928090e-01
	-4.964887096928090e-04
91		8.428000000000005e-01
	5.496274661196247e-01
	-5.496274661196247e-04
92		8.528000000000006e-01
	6.011251105589173e-01
	-6.011251105589173e-04
93		8.628000000000006e-01
	6.497848686305838e-01
	-6.497848686305838e-04
94		8.728000000000006e-01
	6.962660472683909e-01
	-6.962660472683910e-04
95		8.828000000000006e-01
	7.397134807982312e-01
	-7.397134807982312e-04
96		8.928000000000006e-01
	7.804149739661419e-01
	-7.804149739661419e-04
97		9.028000000000006e-01
	8.179951073799322e-01
	-8.179951073799322e-04
98		9.128000000000006e-01
	8.522485976837174e-01
	-8.522485976837174e-04
99		9.228000000000006e-01
	8.833946012826068e-01
	-8.833946012826068e-04
100		9.328000000000006e-01
	9.106376473622856e-01
	-9.106376473622856e-04
101		9.428000000000006e-01
	9.348793197889419e-01
	-9.348793197889420e-04
102		9.528000000000006e-01
	9.546645915788087e-01
	-9.546645915788087e-04
103		9.628000000000007e-01
	9.716354037582434e-01
	-9.716354037582434e-04
104		9.728000000000007e-01
	9.836380276419954e-01
	-9.836380276419955e-04
105		9.828000000000007e-01
	9.930806236499209e-01
	-9.930806236499209e-04
106		9.928000000000007e-01
	9.971035168767113e-01
	-9.971035168767114e-04
107		1.002800000000001e+00
	9.955128552099819e-01
	-9.955128552099819e-04
108		1.012800000000001e+00
	9.794873381027778e-01
	-9.794873381027778e-04
109		1.022800000000001e+00
	9.560464572331917e-01
	-9.560464572331917e-04
110		1.032800000000001e+00
	9.090181393521241e-01
	-9.090181393521241e-04
111		1.042800000000001e+00
	8.564500829105953e-01
	-8.564500829105953e-04
112		1.052800000000001e+00
	7.814950994555856e-01
	-7.814950994555856e-04
113		1.062800000000001e+00
	7.029126865800157e-01
	-7.029126865800157e-04
114		1.072800000000001e+00
	6.049338634789109e-01
	-6.049338634789109e-04
115		1.082800000000001e+00
	5.050154913479414e-01
	-5.050154913479414e-04
116		1.092800000000001e+00
	3.904216503510975e-01
	-3.904216503510976e-04
117		1.102800000000001e+00
	2.751354791344641e-01
	-2.751354791344641e-04
118		1.112800000000001e+00
	1.514222346632412e-01
	-1.514222346632412e-04
119		1.122800000000001e+00
	2.767293035150924e-02
	-2.767293035150924e-05
120		1.132800000000001e+00
	-9.706760026837388e-02
	9.706760026837389e-05
121		1.142800000000001e+00
	-2.218081308882570e-01
	2.218081308882570e-04
122		1.152800000000001e+00
	-3.394573899348624e-01
	3.394573899348624e-04
123		1.162800000000001e+00
	-4.570658945450897e-01
	4.570658945450897e-04
124		1.172800000000001e+00
	-5.605393769729830e-01
	5.605393769729830e-04
125		1.182800000000001e+00
	-6.633230509591431e-01
	6.633230509591431e-04
126		1.192800000000001e+00
	-7.464409326450296e-01
	7.464409326450297e-04
127		1.202800000000001e+00
	-8.276766678353413e-01
	8.276766678353413e-04
128		1.212800000000001e+00
	-8.854934816109835e-01
	8.854934816109835e-04
129		1.222800000000001e+00
	-9.398676262367877e-01
	9.398676262367876e-04
130		1.232800000000001e+00
	-9.689636107571877e-01
	9.689636107571878e-04
131		1.242800000000001e+00
	-9.929195371755261e-01
	9.929195371755262e-04
132		1.252800000000001e+00
	-9.916006422626242e-01
	9.916006422626242e-04
133		1.262800000000001e+00
	-9.835713867425609e-01
	9.835713867425611e-04
134		1.272800000000001e+00
	-9.519664028338511e-01
	9.519664028338512e-04
135		1.282800000000001e+00
	-9.124771611699738e-01
	9.124771611699738e-04
136		1.292800000000001e+00
	-8.525265136939778e-01
	8.525265136939778e-04
137		1.302800000000001e+00
	-7.841602880385318e-01
	7.841602880385318e-04
138		1.312800000000001e+00
	-6.994974119702527e-01
	6.994974119702527e-04
139		1.322800000000001e+00
	-6.067260558051029e-01
	6.067260558051029e-04
140		1.332800000000001e+00
	-5.024585668122441e-01
	5.024585668122441e-04
141		1.342800000000001e+00
	-3.913502800443086e-01
	3.913502800443086e-04
142		1.352800000000001e+00
	-2.737540238459458e-01
	2.737540238459459e-04
143		1.362800000000001e+00
	-1.515764299025293e-01
	1.515764299025293e-04
144		1.372800000000001e+00
	-2.772058147081068e-02
	2.772058147081068e-05
145		1.382800000000001e+00
	9.753464982269915e-02
	-9.753464982269915e-05
146		1.392800000000001e+00
	2.202092433964803e-01
	-2.202092433964803e-04
147		1.402800000000001e+00
	3.403491329324573e-01
	-3.403491329324573e-04
148		1.412800000000001e+00
	4.544734505184216e-01
	-4.544734505184216e-04
149		1.422800000000001e+00
	5.616396153274151e-01
	-5.616396153274152e-04
150		1.432800000000001e+00
	6.603556173688491e-01
	-6.603556173688491e-04
151		1.442800000000001e+00
	7.475382891532074e-01
	-7.475382891532074e-04
152		1.452800000000001e+00
	8.249078088155160e-01
	-8.249078088155160e-04
153		1.462800000000001e+00
	8.864043452157246e-01
	-8.864043452157246e-04
154		1.472800000000001e+00
	9.377635658329501e-01
	-9.377635658329500e-04
155		1.482800000000001e+00
	9.695514614993692e-01
	-9.695514614993692e-04
156		1.492800000000001e+00
	9.917900138230000e-01
	-9.917900138230000e-04
157		1.502800000000001e+00
	9.917900138230000e-01
	-9.917900138230000e-04
158		1.512800000000001e+00
	9.835381355925867e-01
	-9.835381355925868e-04
159		1.522800000000001e+00
	9.517502399261681e-01
	-9.517502399261681e-04
160		1.532800000000001e+00
	9.134628212318049e-01
	-9.134628212318049e-04
161		1.542800000000001e+00
	8.519662848315950e-01
	-8.519662848315949e-04
162		1.552800000000001e+00
	7.858986647383053e-01
	-7.858986647383052e-04
163		1.562800000000001e+00
	6.987159929539469e-01
	-6.987159929539470e-04
164		1.572800000000001e+00
	6.087927278433481e-01
	-6.087927278433481e-04
165		1.582800000000001e+00
	5.016265630343558e-01
	-5.016265630343558e-04
166		1.592800000000001e+00
	3.932106843282624e-01
	-3.932106843282625e-04
167		1.602800000000001e+00
	2.730707947922842e-01
	-2.730707947922843e-04
168		1.612800000000001e+00
	1.526469515918151e-01
	-1.526469515918151e-04
169		1.622800000000001e+00
	2.739172029830525e-02
	-2.739172029830525e-05
170		1.632800000000001e+00
	-9.781828856745363e-02
	9.781828856745363e-05
171		1.642800000000001e+00
	-2.199958825108702e-01
	2.199958825108702e-04
172		1.652800000000001e+00
	-3.421734764542868e-01
	3.421734764542868e-04
173		1.662800000000001e+00
	-4.535709206343765e-01
	4.535709206343765e-04
174		1.672800000000001e+00
	-5.646792074023108e-01
	5.646792074023108e-04
175		1.682800000000001e+00
	-6.586780152576067e-01
	6.586780152576067e-04
176		1.692800000000001e+00
	-7.514493714227576e-01
	7.514493714227576e-04
177		1.702800000000001e+00
	-8.224453744055971e-01
	8.224453744055971e-04
178		1.712800000000001e+00
	-8.908116000610431e-01
	8.908116000610431e-04
179		1.722800000000001e+00
	-9.345911365017541e-01
	9.345911365017540e-04
180		1.732800000000001e+00
	-9.740803781656313e-01
	9.740803781656313e-04
181		1.742800000000001e+00
	-9.880677698337982e-01
	9.880677698337983e-04
182		1.752800000000001e+00
	-9.960970253538614e-01
	9.960970253538614e-04
183		1.762800000000001e+00
	-9.795042183812515e-01
	9.795042183812514e-04
184		1.772800000000001e+00
	-9.555482919629128e-01
	9.555482919629128e-04
185		1.782800000000001e+00
	-9.094181052463250e-01
	9.094181052463251e-04
186		1.792800000000001e+00
	-8.550439606205209e-01
	8.550439606205209e-04
187		1.802800000000001e+00
	-7.821846561287484e-01
	7.821846561287485e-04
188		1.812800000000001e+00
	-7.009489209384369e-01
	7.009489209384369e-04
189		1.822800000000001e+00
	-6.057641935268708e-01
	6.057641935268708e-04
190		1.832800000000001e+00
	-5.029805195407119e-01
	5.029805195407119e-04
191		1.842800000000001e+00
	-3.912051319633376e-01
	3.912051319633376e-04
192		1.852800000000001e+00
	-2.735966273531090e-01
	2.735966273531090e-04
193		1.862800000000001e+00
	-1.519534337410942e-01
	1.519534337410942e-04
194		1.872800000000001e+00
	-2.721290312121108e-02
	2.721290312121108e-05
195		1.882800000000001e+00
	9.698840709593115e-02
	-9.698840709593116e-05
196		1.892800000000001e+00
	2.207016515671540e-01
	-2.207016515671540e-04
197		1.902800000000001e+00
	3.400003603125122e-01
	-3.400003603125123e-04
198		1.912800000000001e+00
	4.545942013093560e-01
	-4.545942013093560e-04
199		1.922800000000001e+00
	5.618231813144460e-01
	-5.618231813144460e-04
200		1.932800000000001e+00
	6.598020044155487e-01
	-6.598020044155487e-04
201		1.942800000000001e+00
	7.485149067353956e-01
	-7.485149067353956e-04
202		1.952800000000001e+00
	8.234698901904070e-01
	-8.234698901904069e-04
203		1.962800000000001e+00
	8.883256794844649e-01
	-8.883256794844649e-04
204		1.972800000000001e+00
	9.353539973655326e-01
	-9.353539973655326e-04
205		1.982800000000001e+00
	9.724361105756115e-01
	-9.724361105756115e-04
206		1.992800000000001e+00
	9.884616276828154e-01
	-9.884616276828154e-04
207		2.002800000000001e+00
	9.899729791101721e-01
	-9.899729791101720e-04
208		2.012800000000001e+00
	9.541621902179492e-01
	-9.541621902179493e-04
209		2.022800000000001e+00
	9.024726572581382e-01
	-9.024726572581382e-04
210		2.032800000000001e+00
	8.002746276800485e-01
	-8.002746276800486e-04
211		2.042800000000001e+00
	6.878707342175253e-01
	-6.878707342175254e-04
212		2.052800000000000e+00
	5.342233908346304e-01
	-5.342233908346304e-04
213		2.062800000000000e+00
	3.760084508885827e-01
	-3.760084508885827e-04
214		2.072800000000000e+00
	1.933698857214491e-01
	-1.933698857214491e-04
215		2.082800000000000e+00
	1.046334620403816e-02
	-1.046334620403816e-05
216		2.092800000000000e+00
	-1.744708034298466e-01
	1.744708034298466e-04
217		2.102799999999999e+00
	-3.575270674618248e-01
	3.575270674618248e-04
218		2.112799999999999e+00
	-5.177256270650734e-01
	5.177256270650734e-04
219		2.122799999999999e+00
	-6.762339794960921e-01
	6.762339794960921e-04
220		2.132799999999999e+00
	-7.882812885144067e-01
	7.882812885144068e-04
221		2.142799999999998e+00
	-9.003285975327213e-01
	9.003285975327214e-04
222		2.152799999999998e+00
	-9.482158308066447e-01
	9.482158308066447e-04
223		2.162799999999998e+00
	-9.957343279945186e-01
	9.957343279945186e-04
224		2.172799999999998e+00
	-9.751041502601310e-01
	9.751041502601310e-04
225		2.182799999999998e+00
	-9.511482238535313e-01
	9.511482238535313e-04
226		2.192799999999997e+00
	-8.651566495291440e-01
	8.651566495291440e-04
227		2.202799999999997e+00
	-7.732278530706642e-01
	7.732278530706643e-04
228		2.212799999999997e+00
	-6.337526025292940e-01
	6.337526025292940e-04
229		2.222799999999997e+00
	-4.872878451802636e-01
	4.872878451802637e-04
230		2.232799999999997e+00
	-3.132932745950563e-01
	3.132932745950563e-04
231		2.242799999999996e+00
	-1.337007950250486e-01
	1.337007950250486e-04
232		2.252799999999996e+00
	5.132617130182572e-02
	-5.132617130182572e-05
233		2.262799999999996e+00
	2.377959714028972e-01
	-2.377959714028971e-04
234		2.272799999999996e+00
	4.089945120780684e-01
	-4.089945120780684e-04
235		2.282799999999995e+00
	5.750859975829690e-01
	-5.750859975829689e-04
236		2.292799999999995e+00
	7.095359967572592e-01
	-7.095359967572593e-04
237		2.302799999999995e+00
	8.309721588386839e-01
	-8.309721588386840e-04
238		2.312799999999995e+00
	9.107369166646486e-01
	-9.107369166646487e-04
239		2.322799999999995e+00
	9.697678584329956e-01
	-9.697678584329957e-04
240		2.332799999999994e+00
	9.842651034980138e-01
	-9.842651034980138e-04
241		2.342799999999994e+00
	9.722624796166146e-01
	-9.722624796166146e-04
242		2.352799999999994e+00
	9.196537705840357e-01
	-9.196537705840358e-04
243		2.362799999999994e+00
	8.383719624289421e-01
	-8.383719624289421e-04
244		2.372799999999994e+00
	7.257903964002598e-01
	-7.257903964002598e-04
245		2.382799999999993e+00
	5.871100801212754e-01
	-5.871100801212755e-04
246		2.392799999999993e+00
	4.296990194828438e-01
	-4.296990194828438e-04
247		2.402799999999993e+00
	2.538906096170629e-01
	-2.538906096170629e-04
248		2.412799999999993e+00
	7.278204273686169e-02
	-7.278204273686169e-05
249		2.422799999999993e+00
	-1.144571635164270e-01
	1.144571635164270e-04
250		2.432799999999992e+00
	-2.949571684252792e-01
	2.949571684252792e-04
251		2.442799999999992e+00
	-4.662590742072166e-01
	4.662590742072166e-04
252		2.452799999999992e+00
	-6.219065145532311e-01
	6.219065145532311e-04
253		2.462799999999992e+00
	-7.522325225244106e-01
	7.522325225244107e-04
254		2.472799999999991e+00
	-8.620764648117220e-01
	8.620764648117220e-04
255		2.482799999999991e+00
	-9.323772803240614e-01
	9.323772803240615e-04
256		2.492799999999991e+00
	-9.815591569909999e-01
	9.815591569910000e-04
257		2.502799999999991e+00
	-9.815591569909999e-01
	9.815591569910000e-04
258		2.512799999999991e+00
	-9.633096391496192e-01
	9.633096391496193e-04
259		2.522799999999990e+00
	-8.930088236372797e-01
	8.930088236372797e-04
260		2.532799999999990e+00
	-8.095759660319670e-01
	8.095759660319671e-04
261		2.542799999999990e+00
	-6.792499580607847e-01
	6.792499580607847e-04
262		2.552799999999990e+00
	-5.416319127515743e-01
	5.416319127515743e-04
263		2.562799999999990e+00
	-3.703300069696369e-01
	3.703300069696369e-04
264		2.572799999999989e+00
	-1.968424142682076e-01
	1.968424142682077e-04
265		2.582799999999989e+00
	-9.603208014918929e-03
	9.603208014918929e-06
266		2.592799999999989e+00
	1.765349092758062e-01
	-1.765349092758062e-04
267		2.602799999999989e+00
	3.523433191415870e-01
	-3.523433191415870e-04
268		2.612799999999988e+00
	5.260907409582752e-01
	-5.260907409582752e-04
269		2.622799999999988e+00
	6.647710572372596e-01
	-6.647710572372596e-04
270		2.632799999999988e+00
	8.026079668405560e-01
	-8.026079668405561e-04
271		2.642799999999988e+00
	8.838897749956479e-01
	-8.838897749956480e-04
272		2.652799999999988e+00
	9.651715831507398e-01
	-9.651715831507398e-04
273		2.662799999999987e+00
	9.789839489901763e-01
	-9.789839489901763e-04
274		2.672799999999987e+00
	9.909865728715754e-01
	-9.909865728715754e-04
275		2.682799999999987e+00
	9.367105310428291e-01
	-9.367105310428291e-04
276		2.692799999999987e+00
	8.776795892744821e-01
	-8.776795892744821e-04
277		2.702799999999987e+00
	7.629679080733054e-01
	-7.629679080733054e-04
278		2.712799999999986e+00
	6.415317459918780e-01
	-6.415317459918781e-04
279		2.722799999999986e+00
	4.820747657005205e-01
	-4.820747657005205e-04
280		2.732799999999986e+00
	3.159832801956199e-01
	-3.159832801956199e-04
281		2.742799999999986e+00
	1.333728833466294e-01
	-1.333728833466294e-04
282		2.752799999999985e+00
	-5.309691675444206e-02
	5.309691675444206e-05
283		2.762799999999985e+00
	-2.342725835839329e-01
	2.342725835839329e-04
284		2.772799999999985e+00
	-4.138650631539406e-01
	4.138650631539407e-04
285		2.782799999999985e+00
	-5.693081092954597e-01
	5.693081092954598e-04
286		2.792799999999985e+00
	-7.157728666444900e-01
	7.157728666444900e-04
287		2.802799999999984e+00
	-8.247079790872477e-01
	8.247079790872477e-04
288		2.812799999999984e+00
	-9.166367755457254e-01
	9.166367755457255e-04
289		2.822799999999984e+00
	-9.645635426411834e-01
	9.645635426411834e-04
290		2.832799999999984e+00
	-9.885194690477831e-01
	9.885194690477830e-04
291		2.842799999999984e+00
	-9.691239695693959e-01
	9.691239695693959e-04
292		2.852799999999983e+00
	-9.216054723815221e-01
	9.216054723815222e-04
293		2.862799999999983e+00
	-8.375821044826683e-01
	8.375821044826684e-04
294		2.872799999999983e+00
	-7.255347954643513e-01
	7.255347954643513e-04
295		2.882799999999983e+00
	-5.882129932907882e-01
	5.882129932907882e-04
296		2.892799999999982e+00
	-4.280144336875396e-01
	4.280144336875396e-04
297		2.902799999999982e+00
	-2.558418292690853e-01
	2.558418292690853e-04
298		2.912799999999982e+00
	-7.090767963520062e-02
	7.090767963520062e-05
299		2.922799999999982e+00
	1.130089170475814e-01
	-1.130089170475814e-04
300		2.932799999999982e+00
	2.956474822147070e-01
	-2.956474822147070e-04
301		2.942799999999981e+00
	4.666185597458720e-01
	-4.666185597458720e-04
302		2.952799999999981e+00
	6.202659031287735e-01
	-6.202659031287735e-04
303		2.962799999999981e+00
	7.553074946655071e-01
	-7.553074946655071e-04
304		2.972799999999981e+00
	8.575055242435966e-01
	-8.575055242435966e-04
305		2.982799999999981e+00
	9.384054431053072e-01
	-9.384054431053071e-04
306		2.992799999999980e+00
	9.742162319975293e-01
	-9.742162319975293e-04
307		3.002799999999980e+00
	9.823449262098614e-01
	-9.823449262098614e-04
308		3.012799999999980e+00
	9.192910912446349e-01
	-9.192910912446349e-04
309		3.022799999999980e+00
	8.299557610766017e-01
	-8.299557610766018e-04
310		3.032799999999980e+00
	6.570219544837622e-01
	-6.570219544837622e-04
311		3.042799999999979e+00
	4.711202240079141e-01
	-4.711202240079141e-04
312		3.052799999999979e+00
	2.328131386004773e-01
	-2.328131386004773e-04
313		3.062799999999979e+00
	-6.130760133931976e-03
	6.130760133931976e-06
314		3.072799999999979e+00
	-2.484797954251665e-01
	2.484797954251666e-04
315		3.082799999999978e+00
	-4.840197396562369e-01
	4.840197396562369e-04
316		3.092799999999978e+00
	-6.680391487928991e-01
	6.680391487928991e-04
317		3.102799999999978e+00
	-8.440347959745180e-01
	8.440347959745181e-04
318		3.112799999999978e+00
	-9.223648670453023e-01
	9.223648670453023e-04
319		3.122799999999978e+00
	-9.962773965143750e-01
	9.962773965143750e-04
320		3.132799999999977e+00
	-9.487588993497852e-01
	9.487588993497852e-04
321		3.142799999999977e+00
	-9.012404021851954e-01
	9.012404021851954e-04
322		3.152799999999977e+00
	-7.407520722763352e-01
	7.407520722763352e-04
323		3.162799999999977e+00
	-5.796144904222460e-01
	5.796144904222460e-04
324		3.172799999999977e+00
	-3.496857142116541e-01
	3.496857142116541e-04
325		3.182799999999976e+00
	-1.163998335003072e-01
	1.163998335003072e-04
326		3.192799999999976e+00
	1.279375823249382e-01
	-1.279375823249382e-04
327		3.202799999999976e+00
	3.733327032132893e-01
	-3.733327032132893e-04
328		3.212799999999976e+00
	5.742237982223442e-01
	-5.742237982223441e-04
329		3.222799999999975e+00
	7.685726347631803e-01
	-7.685726347631803e-04
330		3.232799999999975e+00
	8.789348886767722e-01
	-8.789348886767722e-04
331		3.242799999999975e+00
	9.722193207589744e-01
	-9.722193207589745e-04
332		3.252799999999975e+00
	9.666710889092851e-01
	-9.666710889092851e-04
333		3.262799999999975e+00
	9.348831932428668e-01
	-9.348831932428669e-04
334		3.272799999999974e+00
	8.154983792777526e-01
	-8.154983792777527e-04
335		3.282799999999974e+00
	6.668191710504687e-01
	-6.668191710504687e-04
336		3.292799999999974e+00
	4.624272261492243e-01
	-4.624272261492243e-04
337		3.302799999999974e+00
	2.351211718567690e-01
	-2.351211718567690e-04
338		3.312799999999974e+00
	-5.624636460559329e-03
	5.624636460559329e-06
339		3.322799999999973e+00
	-2.530574617573419e-01
	2.530574617573419e-04
340		3.332799999999973e+00
	-4.731851081837383e-01
	4.731851081837383e-04
341		3.342799999999973e+00
	-6.770647510713621e-01
	6.770647510713621e-04
342		3.352799999999973e+00
	-8.246624690006057e-01
	8.246624690006057e-04
343		3.362799999999972e+00
	-9.325179363005769e-01
	9.325179363005769e-04
344		3.372799999999972e+00
	-9.728742458492806e-01
	9.728742458492806e-04
345		3.382799999999972e+00
	-9.569475749549400e-01
	9.569475749549400e-04
346		3.392799999999972e+00
	-8.806419464274446e-01
	8.806419464274447e-04
347		3.402799999999972e+00
	-7.450320666511375e-01
	7.450320666511376e-04
348		3.412799999999971e+00
	-5.701108842480183e-01
	5.701108842480183e-04
349		3.422799999999971e+00
	-3.497187056012703e-01
	3.497187056012703e-04
350		3.432799999999971e+00
	-1.174604804797584e-01
	1.174604804797584e-04
351		3.442799999999971e+00
	1.309932945507226e-01
	-1.309932945507226e-04
352		3.452799999999971e+00
	3.657390207031050e-01
	-3.657390207031050e-04
353		3.462799999999970e+00
	5.783116848571953e-01
	-5.783116848571953e-04
354		3.472799999999970e+00
	7.599730398766920e-01
	-7.599730398766920e-04
355		3.482799999999970e+00
	8.819563411897262e-01
	-8.819563411897262e-04
356		3.492799999999970e+00
	9.672948630390000e-01
	-9.672948630390000e-04
357		3.502799999999969e+00
	9.672948630390000e-01
	-9.672948630390000e-04
358		3.512799999999969e+00
	9.356289937681994e-01
	-9.356289937681994e-04
359		3.522799999999969e+00
	8.136456924551677e-01
	-8.136456924551677e-04
360		3.532799999999969e+00
	6.718436570862885e-01
	-6.718436570862885e-04
361		3.542799999999969e+00
	4.592709929321935e-01
	-4.592709929321936e-04
362		3.552799999999968e+00
	2.403129555656361e-01
	-2.403129555656361e-04
363		3.562799999999968e+00
	-8.140819464844906e-03
	8.140819464844906e-06
364		3.572799999999968e+00
	-2.527461469953690e-01
	2.527461469953690e-04
365		3.582799999999968e+00
	-4.731383256421169e-01
	4.731383256421169e-04
366		3.592799999999968e+00
	-6.853637195487426e-01
	6.853637195487427e-04
367		3.602799999999967e+00
	-8.209735993250498e-01
	8.209735993250498e-04
368		3.612799999999967e+00
	-9.499398397613338e-01
	9.499398397613338e-04
369		3.622799999999967e+00
	-9.658665106556744e-01
	9.658665106556744e-04
370		3.632799999999967e+00
	-9.799743419132162e-01
	9.799743419132163e-04
371		3.642799999999967e+00
	-8.721188746132450e-01
	8.721188746132451e-04
372		3.652799999999966e+00
	-7.642634073132738e-01
	7.642634073132738e-04
373		3.662799999999966e+00
	-5.628921510555296e-01
	5.628921510555296e-04
374		3.672799999999966e+00
	-3.590125081679101e-01
	3.590125081679101e-04
375		3.682799999999966e+00
	-1.144950795926453e-01
	1.144950795926453e-04
376		3.692799999999965e+00
	1.329377457041427e-01
	-1.329377457041427e-04
377		3.702799999999965e+00
	3.624125622591699e-01
	-3.624125622591699e-04
378		3.712799999999965e+00
	5.897186165516253e-01
	-5.897186165516253e-04
379		3.722799999999965e+00
	7.500795276568489e-01
	-7.500795276568489e-04
380		3.732799999999965e+00
	8.987587358841328e-01
	-8.987587358841329e-04
381		3.742799999999964e+00
	9.526844148158690e-01
	-9.526844148158690e-04
382		3.752799999999964e+00
	9.844723104822871e-01
	-9.844723104822871e-04
383		3.762799999999964e+00
	9.199800387935051e-01
	-9.199800387935051e-04
384		3.772799999999964e+00
	8.266956067113028e-01
	-8.266956067113028e-04
385		3.782799999999964e+00
	6.597372863014868e-01
	-6.597372863014867e-04
386		3.792799999999963e+00
	4.653884497606507e-01
	-4.653884497606507e-04
387		3.802799999999963e+00
	2.359114355172960e-01
	-2.359114355172961e-04
388		3.812799999999963e+00
	-9.483685371055095e-03
	9.483685371055096e-06
389		3.822799999999963e+00
	-2.470399266972513e-01
	2.470399266972513e-04
390		3.832799999999962e+00
	-4.803258074085982e-01
	4.803258074085982e-04
391		3.842799999999962e+00
	-6.698515362595618e-01
	6.698515362595619e-04
392		3.852799999999962e+00
	-8.309891181136512e-01
	8.309891181136512e-04
393		3.862799999999962e+00
	-9.278507605970784e-01
	9.278507605970784e-04
394		3.872799999999962e+00
	-9.753692577616683e-01
	9.753692577616683e-04
395		3.882799999999961e+00
	-9.568300983169209e-01
	9.568300983169209e-04
396		3.892799999999961e+00
	-8.785000272461366e-01
	8.785000272461366e-04
397		3.902799999999961e+00
	-7.490076888141427e-01
	7.490076888141428e-04
398		3.912799999999961e+00
	-5.649882796774806e-01
	5.649882796774806e-04
399		3.922799999999961e+00
	-3.551133709548011e-01
	3.551133709548011e-04
400		3.932799999999960e+00
	-1.127643356636261e-01
	1.127643356636261e-04
401		3.942799999999960e+00
	1.279580210196674e-01
	-1.279580210196674e-04
402		3.952799999999960e+00
	3.662651064271634e-01
	-3.662651064271634e-04
403		3.962799999999960e+00
	5.809310795818674e-01
	-5.809310795818674e-04
404		3.972799999999959e+00